

4 atoms
0 bonds
0 angles
0 dihedrals

2 atom types
0 bond types
0 angle types
0 dihedral types

0 4.32 xlo xhi
0 2.494153163 ylo yhi
0 200.0 zlo zhi

Masses

1	10.811	#	B
2	14.0067	#	N

Atoms

1 1 1 0 0 1.247076581 0
2 1 2 0 0.72 0 0
3 1 1 0 2.16 0 0
4 1 2 0 2.88 1.247076581 0

