
     Program PWSCF v.6.7MaX starts on 11Feb2022 at 20:16:25 

     This program is part of the open-source Quantum ESPRESSO suite
     for quantum simulation of materials; please cite
         "P. Giannozzi et al., J. Phys.:Condens. Matter 21 395502 (2009);
         "P. Giannozzi et al., J. Phys.:Condens. Matter 29 465901 (2017);
          URL http://www.quantum-espresso.org", 
     in publications or presentations arising from this work. More details at
     http://www.quantum-espresso.org/quote

     Parallel version (MPI), running on    20 processors

     MPI processes distributed on     1 nodes
     R & G space division:  proc/nbgrp/npool/nimage =      20
     Waiting for input...
     Reading input from standard input

     Current dimensions of program PWSCF are:
     Max number of different atomic species (ntypx) = 10
     Max number of k-points (npk) =  40000
     Max angular momentum in pseudopotentials (lmaxx) =  3
     file N.pbe-n-kjpaw_psl.1.0.0.UPF: wavefunction(s)  2S renormalized

     Subspace diagonalization in iterative solution of the eigenvalue problem:
     one sub-group per band group will be used
     scalapack distributed-memory algorithm (size of sub-group:  4*  4 procs)

     Message from routine setup:
     using ibrav=0 with symmetry is DISCOURAGED, use correct ibrav instead

     Parallelization info
     --------------------
     sticks:   dense  smooth     PW     G-vecs:    dense   smooth      PW
     Min          31      15      5                 5501     1937     361
     Max          32      16      6                 5524     1956     390
     Sum         625     313    101               110145    38911    7387



     bravais-lattice index     =            0
     lattice parameter (alat)  =       4.7519  a.u.
     unit-cell volume          =     619.6623 (a.u.)^3
     number of atoms/cell      =            2
     number of atomic types    =            2
     number of electrons       =         8.00
     number of Kohn-Sham states=            8
     kinetic-energy cutoff     =      60.0000  Ry
     charge density cutoff     =     480.0000  Ry
     scf convergence threshold =      1.0E-08
     mixing beta               =       0.7000
     number of iterations used =            8  plain     mixing
     Exchange-correlation= SLA  PW   PBX  PBC
                           (   1   4   3   4   0   0   0)

     celldm(1)=   4.751900  celldm(2)=   0.000000  celldm(3)=   0.000000
     celldm(4)=   0.000000  celldm(5)=   0.000000  celldm(6)=   0.000000

     crystal axes: (cart. coord. in units of alat)
               a(1) = (   0.695942   0.000000   0.000000 )  
               a(2) = (   0.347971   1.037267   0.000000 )  
               a(3) = (   0.000000   0.000000   8.000000 )  

     reciprocal axes: (cart. coord. in units 2 pi/alat)
               b(1) = (  1.436902 -0.482036  0.000000 )  
               b(2) = (  0.000000  0.964072  0.000000 )  
               b(3) = (  0.000000  0.000000  0.125000 )  


     PseudoPot. # 1 for B  read from file:
     /mnt/scratch_b/users/m/marapcha/hBN.Bend/FinalBend/B.pbe-n-kjpaw_psl.1.0.0.UPF
     MD5 check sum: 8ad70b99953bd12f00b19037396195f2
     Pseudo is Projector augmented-wave + core cor, Zval =  3.0
     Generated using &quot;atomic&quot; code by A. Dal Corso  v.6.3
     Shape of augmentation charge: PSQ
     Using radial grid of 1059 points,  4 beta functions with: 
                l(1) =   0
                l(2) =   0
                l(3) =   1
                l(4) =   1
     Q(r) pseudized with 0 coefficients 


     PseudoPot. # 2 for N  read from file:
     /mnt/scratch_b/users/m/marapcha/hBN.Bend/FinalBend/N.pbe-n-kjpaw_psl.1.0.0.UPF
     MD5 check sum: a9d02d2210d123af897c360e4d4ce335
     Pseudo is Projector augmented-wave + core cor, Zval =  5.0
     Generated using &quot;atomic&quot; code by A. Dal Corso  v.6.3
     Shape of augmentation charge: PSQ
     Using radial grid of 1085 points,  4 beta functions with: 
                l(1) =   0
                l(2) =   0
                l(3) =   1
                l(4) =   1
     Q(r) pseudized with 0 coefficients 


     atomic species   valence    mass     pseudopotential
        B              3.00    10.81000     B ( 1.00)
        N              5.00    14.01000     N ( 1.00)

      4 Sym. Ops. (no inversion) found



   Cartesian axes

     site n.     atom                  positions (alat units)
         1           B   tau(   1) = (   0.0000000   0.0000000   0.0000000  )
         2           N   tau(   2) = (   0.3479708   0.4602666   0.0000000  )

     number of k points=    21  Gaussian smearing, width (Ry)=  0.0010
                       cart. coord. in units 2pi/alat
        k(    1) = (   0.0000000   0.0000000   0.0000000), wk =   0.0312500
        k(    2) = (   0.0000000   0.1205090   0.0000000), wk =   0.0625000
        k(    3) = (   0.0000000   0.2410181   0.0000000), wk =   0.0625000
        k(    4) = (   0.0000000   0.3615271   0.0000000), wk =   0.0625000
        k(    5) = (   0.0000000  -0.4820362   0.0000000), wk =   0.0312500
        k(    6) = (   0.1796128  -0.0602545   0.0000000), wk =   0.1250000
        k(    7) = (   0.1796128   0.1807636   0.0000000), wk =   0.1250000
        k(    8) = (   0.1796128   0.3012726   0.0000000), wk =   0.1250000
        k(    9) = (   0.1796128  -0.5422907   0.0000000), wk =   0.1250000
        k(   10) = (   0.3592255  -0.1205090   0.0000000), wk =   0.1250000
        k(   11) = (   0.3592255   0.0000000   0.0000000), wk =   0.0625000
        k(   12) = (   0.3592255   0.2410181   0.0000000), wk =   0.1250000
        k(   13) = (   0.3592255  -0.6025452   0.0000000), wk =   0.1250000
        k(   14) = (   0.3592255  -0.4820362   0.0000000), wk =   0.0625000
        k(   15) = (   0.5388383  -0.1807636   0.0000000), wk =   0.1250000
        k(   16) = (   0.5388383  -0.0602545   0.0000000), wk =   0.1250000
        k(   17) = (   0.5388383  -0.6627997   0.0000000), wk =   0.1250000
        k(   18) = (   0.5388383  -0.5422907   0.0000000), wk =   0.1250000
        k(   19) = (  -0.7184511   0.2410181   0.0000000), wk =   0.0625000
        k(   20) = (  -0.7184511   0.3615271   0.0000000), wk =   0.1250000
        k(   21) = (  -0.7184511   0.4820362   0.0000000), wk =   0.0625000

     Dense  grid:   110145 G-vectors     FFT dimensions: (  24,  40, 270)

     Smooth grid:    38911 G-vectors     FFT dimensions: (  18,  25, 192)

     Estimated max dynamical RAM per process >       9.27 MB

     Estimated total dynamical RAM >     185.38 MB

     Initial potential from superposition of free atoms

     starting charge    7.99971, renormalised to    8.00000

     negative rho (up, down):  7.963E-05 0.000E+00
     Starting wfcs are    8 randomized atomic wfcs
     Checking if some PAW data can be deallocated... 

     total cpu time spent up to now is        2.2 secs

     Self-consistent Calculation

     iteration #  1     ecut=    60.00 Ry     beta= 0.70
     Davidson diagonalization with overlap
     ethr =  1.00E-02,  avg # of iterations =  5.4

     negative rho (up, down):  1.226E-04 0.000E+00

     total cpu time spent up to now is        3.2 secs

     total energy              =     -39.26502425 Ry
     estimated scf accuracy    <       0.33675309 Ry

     iteration #  2     ecut=    60.00 Ry     beta= 0.70
     Davidson diagonalization with overlap
     ethr =  4.21E-03,  avg # of iterations =  3.5

     negative rho (up, down):  8.921E-05 0.000E+00

     total cpu time spent up to now is        3.8 secs

     total energy              =     -39.34864151 Ry
     estimated scf accuracy    <       0.39337026 Ry

     iteration #  3     ecut=    60.00 Ry     beta= 0.70
     Davidson diagonalization with overlap
     ethr =  4.21E-03,  avg # of iterations =  1.7

     negative rho (up, down):  8.924E-05 0.000E+00

     total cpu time spent up to now is        4.2 secs

     total energy              =     -39.40959227 Ry
     estimated scf accuracy    <       0.00213657 Ry

     iteration #  4     ecut=    60.00 Ry     beta= 0.70
     Davidson diagonalization with overlap
     ethr =  2.67E-05,  avg # of iterations =  9.5

     negative rho (up, down):  9.624E-05 0.000E+00

     total cpu time spent up to now is        4.9 secs

     total energy              =     -39.41057918 Ry
     estimated scf accuracy    <       0.00022467 Ry

     iteration #  5     ecut=    60.00 Ry     beta= 0.70
     Davidson diagonalization with overlap
     c_bands:  1 eigenvalues not converged
     ethr =  2.81E-06,  avg # of iterations =  4.8

     negative rho (up, down):  9.890E-05 0.000E+00

     total cpu time spent up to now is        5.3 secs

     total energy              =     -39.41063024 Ry
     estimated scf accuracy    <       0.00003283 Ry

     iteration #  6     ecut=    60.00 Ry     beta= 0.70
     Davidson diagonalization with overlap
     ethr =  4.10E-07,  avg # of iterations =  1.5

     negative rho (up, down):  9.912E-05 0.000E+00

     total cpu time spent up to now is        5.7 secs

     total energy              =     -39.41063526 Ry
     estimated scf accuracy    <       0.00000026 Ry

     iteration #  7     ecut=    60.00 Ry     beta= 0.70
     Davidson diagonalization with overlap
     ethr =  3.21E-09,  avg # of iterations =  3.0

     negative rho (up, down):  9.931E-05 0.000E+00

     total cpu time spent up to now is        6.7 secs

     total energy              =     -39.41063542 Ry
     estimated scf accuracy    <       0.00000013 Ry

     iteration #  8     ecut=    60.00 Ry     beta= 0.70
     Davidson diagonalization with overlap
     ethr =  1.68E-09,  avg # of iterations =  1.8

     negative rho (up, down):  9.940E-05 0.000E+00

     total cpu time spent up to now is        7.3 secs

     End of self-consistent calculation

          k = 0.0000 0.0000 0.0000 (  4873 PWs)   bands (ev):

   -25.5733 -13.1709 -11.7036  -1.9017   1.1990   1.4511   2.2053   2.8319

          k = 0.0000 0.1205 0.0000 (  4858 PWs)   bands (ev):

   -25.4234 -13.9536 -11.4116  -0.8878   1.5722   1.6796   2.5635   2.7470

          k = 0.0000 0.2410 0.0000 (  4818 PWs)   bands (ev):

   -25.0171 -15.5662 -10.5640  -0.2205   1.1104   2.9259   3.0975   3.2127

          k = 0.0000 0.3615 0.0000 (  4780 PWs)   bands (ev):

   -24.5195 -17.0089  -9.3147  -2.8505   2.5683   3.0856   4.7455   5.1485

          k = 0.0000-0.4820 0.0000 (  4792 PWs)   bands (ev):

   -24.2717 -17.5992  -8.4646  -4.2104   2.4300   4.6521   6.1367   7.0230

          k = 0.1796-0.0603 0.0000 (  4852 PWs)   bands (ev):

   -24.9855 -12.8589 -10.9734  -1.8101   1.1039   2.1863   2.2102   3.0531

          k = 0.1796 0.1808 0.0000 (  4837 PWs)   bands (ev):

   -24.6923 -14.2285 -10.4026  -0.5980   1.3876   1.5701   3.1365   3.3817

          k = 0.1796 0.3013 0.0000 (  4840 PWs)   bands (ev):

   -24.2008 -15.8800  -9.3340  -0.9932  -0.2412   2.8373   4.5823   4.8975

          k = 0.1796-0.5423 0.0000 (  4802 PWs)   bands (ev):

   -23.7678 -16.9856  -8.1231  -3.1628  -0.3211   4.7210   6.5958   6.8132

          k = 0.3592-0.1205 0.0000 (  4891 PWs)   bands (ev):

   -23.2314 -12.0678  -8.8629  -5.3439   0.8423   3.7354   3.9636   5.3634

          k = 0.3592 0.0000 0.0000 (  4886 PWs)   bands (ev):

   -23.3874 -11.2639  -9.1385  -5.2332  -0.2825   3.5360   4.0941   5.1977

          k = 0.3592 0.2410 0.0000 (  4874 PWs)   bands (ev):

   -22.8043 -13.7304  -8.0701  -5.5339   1.8337   3.1750   5.2871   6.1182

          k = 0.3592-0.6025 0.0000 (  4865 PWs)   bands (ev):

   -22.2696 -15.2326  -6.9341  -5.6825  -0.4508   5.3621   7.3580   7.7484

          k = 0.3592-0.4820 0.0000 (  4822 PWs)   bands (ev):

   -21.9963 -15.8562  -6.2073  -5.7379  -1.6136   6.5626   8.9690   9.9088

          k = 0.5388-0.1808 0.0000 (  4890 PWs)   bands (ev):

   -20.3751 -11.3869 -10.5822  -5.7840   1.0946   3.9987   7.0258   9.3901

          k = 0.5388-0.0603 0.0000 (  4864 PWs)   bands (ev):

   -20.6790 -10.6054  -9.9948  -6.2340  -0.3800   4.9556   5.9558   8.6054

          k = 0.5388-0.6628 0.0000 (  4894 PWs)   bands (ev):

   -19.8437 -13.0425 -10.5999  -4.9942   2.5459   3.0256   8.5759  10.8684

          k = 0.5388-0.5423 0.0000 (  4901 PWs)   bands (ev):

   -19.3389 -14.2020 -10.6070  -4.2293   1.3441   4.6481   9.3796  10.9550

          k =-0.7185 0.2410 0.0000 (  4898 PWs)   bands (ev):

   -17.4989 -14.6817 -10.7309  -3.7110   0.7660   3.3180   9.4647  11.8549

          k =-0.7185 0.3615 0.0000 (  4896 PWs)   bands (ev):

   -17.4849 -14.7158 -10.7181  -3.7267   0.9798   3.4574   8.4753  11.2251

          k =-0.7185 0.4820 0.0000 (  4908 PWs)   bands (ev):

   -17.4706 -14.7500 -10.7056  -3.7422   1.2204   3.6062   7.6779  10.6914

     the Fermi energy is    -0.5267 ev

!    total energy              =     -39.41063545 Ry

     total all-electron energy =      -158.948781 Ry
     estimated scf accuracy    <          5.1E-10 Ry
     smearing contrib. (-TS)   =      -0.00000000 Ry
     internal energy E=F+TS    =     -39.41063545 Ry

     The total energy is F=E-TS. E is the sum of the following terms:
     one-electron contribution =    -261.24416133 Ry
     hartree contribution      =     132.08901267 Ry
     xc contribution           =      -8.88131380 Ry
     ewald contribution        =     111.81126064 Ry
     one-center paw contrib.   =     -13.18543362 Ry

     convergence has been achieved in   8 iterations

     negative rho (up, down):  9.940E-05 0.000E+00

     Forces acting on atoms (cartesian axes, Ry/au):

     atom    1 type  1   force =     0.00000000    0.05320030    0.00000000
     atom    2 type  2   force =     0.00000000   -0.05320030    0.00000000

     Total force =     0.075237     Total SCF correction =     0.000001


     Computing stress (Cartesian axis) and pressure


     negative rho (up, down):  9.940E-05 0.000E+00
          total   stress  (Ry/bohr**3)                   (kbar)     P=       97.18
   0.00172256   0.00000000   0.00000000          253.40        0.00        0.00
   0.00000000   0.00026298  -0.00000000            0.00       38.69       -0.00
   0.00000000  -0.00000000  -0.00000369            0.00       -0.00       -0.54


     Writing output data file /mnt/scratch_b/users/m/marapcha/hBN.Bend/FinalBend/BN.save/

     init_run     :      0.65s CPU      0.73s WALL (       1 calls)
     electrons    :      2.94s CPU      5.23s WALL (       1 calls)
     forces       :      0.32s CPU      0.32s WALL (       1 calls)
     stress       :      0.82s CPU      0.83s WALL (       1 calls)

     Called by init_run:
     wfcinit      :      0.12s CPU      0.16s WALL (       1 calls)
     potinit      :      0.17s CPU      0.18s WALL (       1 calls)
     hinit0       :      0.32s CPU      0.33s WALL (       1 calls)

     Called by electrons:
     c_bands      :      2.34s CPU      3.61s WALL (       8 calls)
     sum_band     :      0.30s CPU      0.32s WALL (       8 calls)
     v_of_rho     :      0.11s CPU      0.12s WALL (       9 calls)
     newd         :      0.07s CPU      0.08s WALL (       9 calls)
     PAW_pot      :      0.11s CPU      0.12s WALL (       9 calls)
     mix_rho      :      0.01s CPU      0.01s WALL (       8 calls)

     Called by c_bands:
     init_us_2    :      0.03s CPU      0.03s WALL (     399 calls)
     cegterg      :      2.29s CPU      2.37s WALL (     168 calls)

     Called by *egterg:
     cdiaghg      :      0.83s CPU      0.88s WALL (     822 calls)
     h_psi        :      1.18s CPU      1.23s WALL (     843 calls)
     s_psi        :      0.01s CPU      0.01s WALL (     843 calls)
     g_psi        :      0.01s CPU      0.01s WALL (     654 calls)

     Called by h_psi:
     h_psi:calbec :      0.04s CPU      0.04s WALL (     843 calls)
     vloc_psi     :      1.11s CPU      1.16s WALL (     843 calls)
     add_vuspsi   :      0.02s CPU      0.02s WALL (     843 calls)

     General routines
     calbec       :      0.06s CPU      0.06s WALL (    1116 calls)
     fft          :      0.08s CPU      0.08s WALL (     140 calls)
     ffts         :      0.00s CPU      0.00s WALL (      17 calls)
     fftw         :      1.23s CPU      1.29s WALL (    9274 calls)
     interpolate  :      0.01s CPU      0.01s WALL (       9 calls)

     Parallel routines
     fft_scatt_xy :      0.09s CPU      0.10s WALL (    9431 calls)
     fft_scatt_yz :      0.45s CPU      0.47s WALL (    9431 calls)

     PWSCF        :      4.94s CPU     10.32s WALL


   This run was terminated on:  20:16:35  11Feb2022            

=------------------------------------------------------------------------------=
   JOB DONE.
=------------------------------------------------------------------------------=
