
     Program PWSCF v.6.7MaX starts on 18Apr2023 at  2:27:36 

     This program is part of the open-source Quantum ESPRESSO suite
     for quantum simulation of materials; please cite
         "P. Giannozzi et al., J. Phys.:Condens. Matter 21 395502 (2009);
         "P. Giannozzi et al., J. Phys.:Condens. Matter 29 465901 (2017);
          URL http://www.quantum-espresso.org", 
     in publications or presentations arising from this work. More details at
     http://www.quantum-espresso.org/quote

     Parallel version (MPI), running on    20 processors

     MPI processes distributed on     1 nodes
     R & G space division:  proc/nbgrp/npool/nimage =      20
     Waiting for input...
     Reading input from standard input

     Current dimensions of program PWSCF are:
     Max number of different atomic species (ntypx) = 10
     Max number of k-points (npk) =  40000
     Max angular momentum in pseudopotentials (lmaxx) =  3
     file N.pbe-n-kjpaw_psl.1.0.0.UPF: wavefunction(s)  2S renormalized

     Subspace diagonalization in iterative solution of the eigenvalue problem:
     one sub-group per band group will be used
     scalapack distributed-memory algorithm (size of sub-group:  4*  4 procs)

     Message from routine setup:
     using ibrav=0 with symmetry is DISCOURAGED, use correct ibrav instead

     Parallelization info
     --------------------
     sticks:   dense  smooth     PW     G-vecs:    dense   smooth      PW
     Min         718     360     98                73313    25920    3746
     Max         720     361     99                73317    25924    3749
     Sum       14371    7201   1979              1466291   518413   74955



     bravais-lattice index     =            0
     lattice parameter (alat)  =      45.7057  a.u.
     unit-cell volume          =    8255.8209 (a.u.)^3
     number of atoms/cell      =           22
     number of atomic types    =            2
     number of electrons       =        88.00
     number of Kohn-Sham states=           48
     kinetic-energy cutoff     =      60.0000  Ry
     charge density cutoff     =     480.0000  Ry
     scf convergence threshold =      1.0E-06
     mixing beta               =       0.7000
     number of iterations used =            8  plain     mixing
     Exchange-correlation= SLA  PW   PBX  PBC
                           (   1   4   3   4   0   0   0)

     celldm(1)=  45.705741  celldm(2)=   0.000000  celldm(3)=   0.000000
     celldm(4)=   0.000000  celldm(5)=   0.000000  celldm(6)=   0.000000

     crystal axes: (cart. coord. in units of alat)
               a(1) = (   1.000000   0.000000   0.000000 )  
               a(2) = (   0.000000   0.180069   0.000000 )  
               a(3) = (   0.000000   0.000000   0.480185 )  

     reciprocal axes: (cart. coord. in units 2 pi/alat)
               b(1) = (  1.000000  0.000000  0.000000 )  
               b(2) = (  0.000000  5.553418  0.000000 )  
               b(3) = (  0.000000  0.000000  2.082532 )  


     PseudoPot. # 1 for B  read from file:
     /mnt/scratch_b/users/m/marapcha/hBN.Torsion/Armchair/PSEUDO_DIR/B.pbe-n-kjpaw_psl.1.0.0.UPF
     MD5 check sum: 8ad70b99953bd12f00b19037396195f2
     Pseudo is Projector augmented-wave + core cor, Zval =  3.0
     Generated using &quot;atomic&quot; code by A. Dal Corso  v.6.3
     Shape of augmentation charge: PSQ
     Using radial grid of 1059 points,  4 beta functions with: 
                l(1) =   0
                l(2) =   0
                l(3) =   1
                l(4) =   1
     Q(r) pseudized with 0 coefficients 


     PseudoPot. # 2 for N  read from file:
     /mnt/scratch_b/users/m/marapcha/hBN.Torsion/Armchair/PSEUDO_DIR/N.pbe-n-kjpaw_psl.1.0.0.UPF
     MD5 check sum: a9d02d2210d123af897c360e4d4ce335
     Pseudo is Projector augmented-wave + core cor, Zval =  5.0
     Generated using &quot;atomic&quot; code by A. Dal Corso  v.6.3
     Shape of augmentation charge: PSQ
     Using radial grid of 1085 points,  4 beta functions with: 
                l(1) =   0
                l(2) =   0
                l(3) =   1
                l(4) =   1
     Q(r) pseudized with 0 coefficients 


     atomic species   valence    mass     pseudopotential
        B              3.00    10.81000     B ( 1.00)
        N              5.00    14.01000     N ( 1.00)

      4 Sym. Ops. (no inversion) found



   Cartesian axes

     site n.     atom                  positions (alat units)
         1           B   tau(   1) = (  -0.1559446   0.0000000   0.0000000  )
         2           N   tau(   2) = (  -0.1039630   0.0300115   0.0000000  )
         3           B   tau(   3) = (  -0.0519815   0.0000000   0.0000000  )
         4           N   tau(   4) = (   0.0000000   0.0300115   0.0000000  )
         5           B   tau(   5) = (   0.0519815   0.0000000   0.0000000  )
         6           N   tau(   6) = (   0.1039630   0.0300115   0.0000000  )
         7           B   tau(   7) = (   0.1559446   0.0000000   0.0000000  )
         8           N   tau(   8) = (  -0.1559446   0.1200462   0.0000000  )
         9           B   tau(   9) = (  -0.1039630   0.0900346   0.0000000  )
        10           N   tau(  10) = (  -0.0519815   0.1200462   0.0000000  )
        11           B   tau(  11) = (   0.0000000   0.0900346   0.0000000  )
        12           N   tau(  12) = (   0.0519815   0.1200462   0.0000000  )
        13           B   tau(  13) = (   0.1039630   0.0900346   0.0000000  )
        14           N   tau(  14) = (   0.1559446   0.1200462   0.0000000  )
        15           N   tau(  15) = (  -0.2079261   0.0300115   0.0000000  )
        16           B   tau(  16) = (  -0.2079261   0.0900346   0.0000000  )
        17           N   tau(  17) = (   0.2079261   0.0300115   0.0000000  )
        18           B   tau(  18) = (   0.2079261   0.0900346   0.0000000  )
        19           B   tau(  19) = (  -0.2599076   0.0000000   0.0000000  )
        20           N   tau(  20) = (  -0.2599076   0.1200462   0.0000000  )
        21           B   tau(  21) = (   0.2599076   0.0000000   0.0000000  )
        22           N   tau(  22) = (   0.2599076   0.1200462   0.0000000  )

     number of k points=    13  Gaussian smearing, width (Ry)=  0.0050
                       cart. coord. in units 2pi/alat
        k(    1) = (   0.0000000   0.0000000   0.0000000), wk =   0.0833333
        k(    2) = (   0.0000000   0.2313924   0.0000000), wk =   0.1666667
        k(    3) = (   0.0000000   0.4627848   0.0000000), wk =   0.1666667
        k(    4) = (   0.0000000   0.6941773   0.0000000), wk =   0.1666667
        k(    5) = (   0.0000000   0.9255697   0.0000000), wk =   0.1666667
        k(    6) = (   0.0000000   1.1569621   0.0000000), wk =   0.1666667
        k(    7) = (   0.0000000   1.3883545   0.0000000), wk =   0.1666667
        k(    8) = (   0.0000000   1.6197469   0.0000000), wk =   0.1666667
        k(    9) = (   0.0000000   1.8511393   0.0000000), wk =   0.1666667
        k(   10) = (   0.0000000   2.0825318   0.0000000), wk =   0.1666667
        k(   11) = (   0.0000000   2.3139242   0.0000000), wk =   0.1666667
        k(   12) = (   0.0000000   2.5453166   0.0000000), wk =   0.1666667
        k(   13) = (   0.0000000  -2.7767090   0.0000000), wk =   0.0833333

     Dense  grid:  1466291 G-vectors     FFT dimensions: ( 320,  60, 160)

     Smooth grid:   518413 G-vectors     FFT dimensions: ( 225,  45, 120)

     Estimated max dynamical RAM per process >     146.23 MB

     Estimated total dynamical RAM >       2.86 GB

     Initial potential from superposition of free atoms

     starting charge   87.99681, renormalised to   88.00000

     negative rho (up, down):  5.790E-04 0.000E+00
     Starting wfcs are   88 randomized atomic wfcs
     Checking if some PAW data can be deallocated... 

     total cpu time spent up to now is       13.8 secs

     Self-consistent Calculation

     iteration #  1     ecut=    60.00 Ry     beta= 0.70
     Davidson diagonalization with overlap
     ethr =  1.00E-02,  avg # of iterations =  2.0

     negative rho (up, down):  1.030E-03 0.000E+00

     total cpu time spent up to now is       27.1 secs

     total energy              =    -435.58644494 Ry
     estimated scf accuracy    <       5.54676805 Ry

     iteration #  2     ecut=    60.00 Ry     beta= 0.70
     Davidson diagonalization with overlap
     ethr =  6.30E-03,  avg # of iterations =  3.4

     negative rho (up, down):  1.072E-03 0.000E+00

     total cpu time spent up to now is       43.3 secs

     total energy              =    -436.14701371 Ry
     estimated scf accuracy    <       8.93624726 Ry

     iteration #  3     ecut=    60.00 Ry     beta= 0.70
     Davidson diagonalization with overlap
     ethr =  6.30E-03,  avg # of iterations =  2.8

     negative rho (up, down):  9.895E-04 0.000E+00

     total cpu time spent up to now is       55.2 secs

     total energy              =    -437.68143500 Ry
     estimated scf accuracy    <       1.01287322 Ry

     iteration #  4     ecut=    60.00 Ry     beta= 0.70
     Davidson diagonalization with overlap
     ethr =  1.15E-03,  avg # of iterations =  2.0

     negative rho (up, down):  1.161E-03 0.000E+00

     total cpu time spent up to now is       66.5 secs

     total energy              =    -437.81495759 Ry
     estimated scf accuracy    <       0.07905155 Ry

     iteration #  5     ecut=    60.00 Ry     beta= 0.70
     Davidson diagonalization with overlap
     ethr =  8.98E-05,  avg # of iterations =  6.7

     negative rho (up, down):  1.254E-03 0.000E+00

     total cpu time spent up to now is       79.8 secs

     total energy              =    -437.82750136 Ry
     estimated scf accuracy    <       0.00556152 Ry

     iteration #  6     ecut=    60.00 Ry     beta= 0.70
     Davidson diagonalization with overlap
     ethr =  6.32E-06,  avg # of iterations =  7.2

     negative rho (up, down):  1.322E-03 0.000E+00

     total cpu time spent up to now is       94.6 secs

     total energy              =    -437.82813529 Ry
     estimated scf accuracy    <       0.00245201 Ry

     iteration #  7     ecut=    60.00 Ry     beta= 0.70
     Davidson diagonalization with overlap
     ethr =  2.79E-06,  avg # of iterations =  6.2

     negative rho (up, down):  1.346E-03 0.000E+00

     total cpu time spent up to now is      107.9 secs

     total energy              =    -437.82865239 Ry
     estimated scf accuracy    <       0.00049928 Ry

     iteration #  8     ecut=    60.00 Ry     beta= 0.70
     Davidson diagonalization with overlap
     ethr =  5.67E-07,  avg # of iterations =  3.0

     negative rho (up, down):  1.352E-03 0.000E+00

     total cpu time spent up to now is      119.1 secs

     total energy              =    -437.82871885 Ry
     estimated scf accuracy    <       0.00003523 Ry

     iteration #  9     ecut=    60.00 Ry     beta= 0.70
     Davidson diagonalization with overlap
     ethr =  4.00E-08,  avg # of iterations =  3.8

     negative rho (up, down):  1.353E-03 0.000E+00

     total cpu time spent up to now is      131.8 secs

     total energy              =    -437.82872340 Ry
     estimated scf accuracy    <       0.00000848 Ry

     iteration # 10     ecut=    60.00 Ry     beta= 0.70
     Davidson diagonalization with overlap
     ethr =  9.64E-09,  avg # of iterations =  2.2

     negative rho (up, down):  1.352E-03 0.000E+00

     total cpu time spent up to now is      143.9 secs

     total energy              =    -437.82872439 Ry
     estimated scf accuracy    <       0.00000119 Ry

     iteration # 11     ecut=    60.00 Ry     beta= 0.70
     Davidson diagonalization with overlap
     ethr =  1.35E-09,  avg # of iterations =  3.5

     negative rho (up, down):  1.352E-03 0.000E+00

     total cpu time spent up to now is      156.6 secs

     End of self-consistent calculation

          k = 0.0000 0.0000 0.0000 ( 64743 PWs)   bands (ev):

   -21.9699 -21.6611 -21.1334 -20.4416 -19.6441 -18.9531 -18.9383 -18.7046
   -18.5854 -17.6174 -17.6156 -13.2226 -12.9472 -12.5166 -12.0849 -12.0650
   -11.7292 -11.3844 -11.0493 -10.8349 -10.3355 -10.0833  -9.5173  -9.5034
    -9.1451  -9.1340  -9.0855  -8.4075  -8.2895  -8.0624  -7.5161  -7.4344
    -6.9266  -6.4599  -6.3898  -6.1452  -5.3865  -5.2487  -4.9248  -4.7587
    -4.7539  -4.6936  -4.2063  -4.1110  -2.1483  -2.1334  -0.0263   0.0526

          k = 0.0000 0.2314 0.0000 ( 64729 PWs)   bands (ev):

   -21.9616 -21.6532 -21.1261 -20.4355 -19.6408 -18.9769 -18.9462 -18.7207
   -18.5998 -17.6258 -17.6228 -13.1850 -12.9155 -12.5130 -12.1162 -12.0999
   -11.7258 -11.3394 -11.0590 -10.7998 -10.3290 -10.0599  -9.5305  -9.4923
    -9.1420  -9.1117  -9.0747  -8.3972  -8.2736  -8.0886  -7.5068  -7.4273
    -6.9456  -6.4529  -6.3991  -6.1698  -5.3871  -5.2872  -4.9584  -4.7623
    -4.7556  -4.7147  -4.2243  -4.1324  -2.1580  -2.1433  -0.0094   0.0711

          k = 0.0000 0.4628 0.0000 ( 64729 PWs)   bands (ev):

   -21.9370 -21.6295 -21.1043 -20.4173 -19.6313 -19.0463 -18.9737 -18.7638
   -18.6424 -17.6500 -17.6436 -13.0748 -12.8230 -12.5159 -12.2244 -12.1198
   -11.7544 -11.2023 -11.1029 -10.6978 -10.2967 -10.0120  -9.5576  -9.4592
    -9.1247  -9.0548  -9.0423  -8.3664  -8.2335  -8.1586  -7.4791  -7.4121
    -7.0026  -6.4319  -6.4269  -6.2450  -5.3985  -5.3923  -5.0523  -4.7798
    -4.7711  -4.7600  -4.2732  -4.1947  -2.1866  -2.1727   0.0383   0.1127

          k = 0.0000 0.6942 0.0000 ( 64715 PWs)   bands (ev):

   -21.8961 -21.5901 -21.0680 -20.3874 -19.6168 -19.1553 -19.0325 -18.8188
   -18.7114 -17.6871 -17.6755 -12.8986 -12.6786 -12.5527 -12.3458 -12.0980
   -11.8120 -11.1870 -10.9998 -10.5558 -10.2131 -10.0047  -9.5494  -9.4040
    -9.0816  -8.9885  -8.9884  -8.3152  -8.2507  -8.1858  -7.4332  -7.4020
    -7.0965  -6.4742  -6.3979  -6.3731  -5.5708  -5.4209  -5.1792  -4.8914
    -4.7804  -4.7653  -4.3410  -4.2918  -2.2335  -2.2206   0.1109   0.1474

          k = 0.0000 0.9256 0.0000 ( 64706 PWs)   bands (ev):

   -21.8391 -21.5352 -21.0176 -20.3464 -19.6004 -19.2947 -19.1326 -18.8708
   -18.8035 -17.7331 -17.7153 -12.6811 -12.6063 -12.5135 -12.4535 -12.0282
   -11.8592 -11.2935 -10.7605 -10.4028 -10.0850 -10.0656  -9.4666  -9.3269
    -9.0093  -8.9495  -8.9133  -8.3335  -8.2439  -8.1475  -7.4098  -7.3695
    -7.2233  -6.5538  -6.5437  -6.3527  -5.7888  -5.5323  -5.2694  -5.0473
    -4.7856  -4.7684  -4.4176  -4.4148  -2.2971  -2.2852   0.1624   0.2012

          k = 0.0000 1.1570 0.0000 ( 64766 PWs)   bands (ev):

   -21.7661 -21.4652 -20.9537 -20.2954 -19.5953 -19.4454 -19.2682 -18.9196
   -18.9133 -17.7829 -17.7602 -12.7126 -12.6001 -12.3717 -12.3071 -11.9511
   -11.8496 -11.3857 -10.5017 -10.2424 -10.2202  -9.8683  -9.3415  -9.2282
    -8.9772  -8.9098  -8.8172  -8.3716  -8.1529  -8.1342  -7.4477  -7.3744
    -7.2890  -6.7814  -6.6388  -6.3029  -6.0336  -5.7378  -5.3038  -5.2381
    -4.7838  -4.7665  -4.5519  -4.4993  -2.3745  -2.3636   0.1682   0.2985

          k = 0.0000 1.3884 0.0000 ( 64838 PWs)   bands (ev):

   -21.6775 -21.3805 -20.8770 -20.2364 -19.6851 -19.5214 -19.4260 -19.0323
   -18.9726 -17.8317 -17.8075 -12.7837 -12.7207 -12.1822 -12.0517 -11.9320
   -11.7244 -11.4016 -10.3980 -10.2084 -10.0654  -9.6479  -9.2076  -9.1082
    -9.0773  -8.7897  -8.7005  -8.3604  -8.1611  -8.0429  -7.5365  -7.5314
    -7.1931  -7.0411  -6.7612  -6.3490  -6.1967  -5.9836  -5.4492  -5.3348
    -4.7742  -4.7575  -4.6867  -4.5862  -2.4616  -2.4514   0.1775   0.3785

          k = 0.0000 1.6197 0.0000 ( 64792 PWs)   bands (ev):

   -21.5737 -21.2816 -20.7886 -20.1736 -19.8643 -19.5927 -19.5322 -19.1461
   -19.0342 -17.8752 -17.8548 -12.8390 -12.8349 -12.1171 -12.0059 -11.7007
   -11.4946 -11.3091 -10.5488  -9.9330  -9.8699  -9.4339  -9.2068  -9.0798
    -8.9674  -8.6602  -8.5638  -8.3314  -8.2414  -7.9148  -7.6933  -7.6879
    -7.3019  -7.0849  -6.9086  -6.6099  -6.2427  -6.1622  -5.6589  -5.3938
    -4.7982  -4.7575  -4.7413  -4.6784  -2.5531  -2.5435   0.1982   0.3971

          k = 0.0000 1.8511 0.0000 ( 64838 PWs)   bands (ev):

   -21.4552 -21.1695 -20.6912 -20.1195 -20.0571 -19.7505 -19.5688 -19.2298
   -19.1052 -17.9109 -17.8996 -12.9366 -12.8739 -12.1209 -12.0640 -11.3533
   -11.2476 -11.1349 -10.6651  -9.6803  -9.6519  -9.3905  -9.1639  -8.9717
    -8.8062  -8.5459  -8.4078  -8.3605  -8.3167  -7.9412  -7.8348  -7.7705
    -7.5273  -7.0754  -6.9746  -6.8899  -6.4953  -6.1660  -5.8128  -5.4966
    -4.8701  -4.7745  -4.7356  -4.7196  -2.6426  -2.6336   0.2349   0.3522

          k = 0.0000 2.0825 0.0000 ( 64830 PWs)   bands (ev):

   -21.3229 -21.0458 -20.5915 -20.2457 -20.1209 -19.8499 -19.6544 -19.2657
   -19.1825 -17.9392 -17.9376 -13.0209 -12.8884 -12.2411 -12.0039 -11.1269
   -11.0922 -10.8413 -10.6234  -9.6659  -9.3781  -9.3211  -8.9733  -8.9268
    -8.6254  -8.5661  -8.3858  -8.3622  -8.2339  -8.2158  -7.9613  -7.7262
    -7.6149  -7.2534  -7.1645  -6.9316  -6.6675  -6.2993  -5.8325  -5.6369
    -4.9051  -4.8703  -4.7118  -4.6958  -2.7231  -2.7145   0.2882   0.2883

          k = 0.0000 2.3139 0.0000 ( 64856 PWs)   bands (ev):

   -21.1780 -20.9137 -20.5399 -20.3796 -20.2266 -19.8421 -19.7686 -19.2705
   -19.2590 -17.9705 -17.9557 -13.0839 -12.8861 -12.3461 -11.9380 -11.1810
   -10.9158 -10.4666 -10.3847  -9.7894  -9.1458  -9.0957  -9.0132  -8.8120
    -8.6950  -8.5939  -8.4261  -8.3158  -8.3137  -8.0443  -8.0389  -7.9156
    -7.5144  -7.4330  -7.3656  -7.1028  -6.6124  -6.4997  -5.7933  -5.7819
    -4.9578  -4.9183  -4.6901  -4.6740  -2.7874  -2.7792   0.2322   0.3544

          k = 0.0000 2.5453 0.0000 ( 64862 PWs)   bands (ev):

   -21.0237 -20.7836 -20.6664 -20.3647 -20.3375 -19.8765 -19.7989 -19.3210
   -19.2664 -17.9907 -17.9661 -13.1227 -12.8755 -12.4203 -11.8798 -11.2620
   -10.7859 -10.1465 -10.1094  -9.8305  -9.2822  -9.1119  -8.8524  -8.8434
    -8.6623  -8.5731  -8.4200  -8.4004  -8.2104  -8.0718  -7.9845  -7.8466
    -7.7238  -7.6002  -7.3276  -7.2472  -6.6957  -6.4973  -5.9360  -5.7302
    -5.0234  -4.9219  -4.6749  -4.6587  -2.8292  -2.8212   0.1952   0.4199

          k = 0.0000-2.7767 0.0000 ( 64852 PWs)   bands (ev):

   -20.9010 -20.7932 -20.7091 -20.4440 -20.2962 -19.9274 -19.7779 -19.3465
   -19.2641 -17.9977 -17.9694 -13.1358 -12.8695 -12.4479 -11.8548 -11.2971
   -10.7329 -10.0855  -9.9554  -9.6402  -9.4167  -9.4081  -8.6765  -8.6554
    -8.6243  -8.6172  -8.5455  -8.4834  -8.1352  -8.0169  -7.9291  -7.9134
    -7.7104  -7.6962  -7.4751  -7.1537  -6.8025  -6.4368  -6.0044  -5.7088
    -5.0485  -4.9225  -4.6694  -4.6531  -2.8436  -2.8358   0.1824   0.4512

     the Fermi energy is    -3.6677 ev

!    total energy              =    -437.82872461 Ry

     total all-electron energy =     -1752.748325 Ry
     estimated scf accuracy    <       0.00000012 Ry
     smearing contrib. (-TS)   =      -0.00000000 Ry
     internal energy E=F+TS    =    -437.82872461 Ry

     The total energy is F=E-TS. E is the sum of the following terms:
     one-electron contribution =   -1824.42877168 Ry
     hartree contribution      =     930.84543873 Ry
     xc contribution           =     -95.91005669 Ry
     ewald contribution        =     696.67327423 Ry
     one-center paw contrib.   =    -145.00860920 Ry

     convergence has been achieved in  11 iterations

     Writing output data file /mnt/scratch_b/users/m/marapcha/hBN.Torsion/Armchair/TMP_DIR/BN_arm.save/

     init_run     :     12.78s CPU     13.33s WALL (       1 calls)
     electrons    :    139.15s CPU    143.77s WALL (       1 calls)

     Called by init_run:
     wfcinit      :      6.45s CPU      6.87s WALL (       1 calls)
     potinit      :      2.06s CPU      2.10s WALL (       1 calls)
     hinit0       :      3.57s CPU      3.58s WALL (       1 calls)

     Called by electrons:
     c_bands      :    112.99s CPU    115.37s WALL (      11 calls)
     sum_band     :     20.73s CPU     21.35s WALL (      11 calls)
     v_of_rho     :      2.33s CPU      2.53s WALL (      12 calls)
     newd         :      1.65s CPU      1.99s WALL (      12 calls)
     PAW_pot      :      1.21s CPU      1.25s WALL (      12 calls)
     mix_rho      :      0.37s CPU      0.40s WALL (      11 calls)

     Called by c_bands:
     init_us_2    :      1.16s CPU      1.19s WALL (     299 calls)
     cegterg      :    110.65s CPU    111.80s WALL (     143 calls)

     Called by *egterg:
     cdiaghg      :      3.33s CPU      3.62s WALL (     699 calls)
     h_psi        :     95.12s CPU     96.10s WALL (     712 calls)
     s_psi        :      4.62s CPU      4.64s WALL (     712 calls)
     g_psi        :      0.31s CPU      0.31s WALL (     556 calls)

     Called by h_psi:
     h_psi:calbec :      4.56s CPU      4.59s WALL (     712 calls)
     vloc_psi     :     85.35s CPU     86.25s WALL (     712 calls)
     add_vuspsi   :      4.71s CPU      4.73s WALL (     712 calls)

     General routines
     calbec       :      5.85s CPU      5.90s WALL (     855 calls)
     fft          :      1.66s CPU      1.85s WALL (     154 calls)
     ffts         :      0.08s CPU      0.08s WALL (      23 calls)
     fftw         :     95.78s CPU     96.78s WALL (   46246 calls)
     interpolate  :      0.20s CPU      0.21s WALL (      12 calls)

     Parallel routines
     fft_scatt_xy :     11.39s CPU     11.52s WALL (   46423 calls)
     fft_scatt_yz :     12.77s CPU     13.13s WALL (   46423 calls)

     PWSCF        :   2m32.65s CPU   2m47.22s WALL


   This run was terminated on:   2:30:23  18Apr2023            

=------------------------------------------------------------------------------=
   JOB DONE.
=------------------------------------------------------------------------------=
