
     Program PWSCF v.6.7MaX starts on 27Mar2023 at 21:30:37 

     This program is part of the open-source Quantum ESPRESSO suite
     for quantum simulation of materials; please cite
         "P. Giannozzi et al., J. Phys.:Condens. Matter 21 395502 (2009);
         "P. Giannozzi et al., J. Phys.:Condens. Matter 29 465901 (2017);
          URL http://www.quantum-espresso.org", 
     in publications or presentations arising from this work. More details at
     http://www.quantum-espresso.org/quote

     Parallel version (MPI), running on    20 processors

     MPI processes distributed on     1 nodes
     R & G space division:  proc/nbgrp/npool/nimage =      20
     Waiting for input...
     Reading input from standard input

     Current dimensions of program PWSCF are:
     Max number of different atomic species (ntypx) = 10
     Max number of k-points (npk) =  40000
     Max angular momentum in pseudopotentials (lmaxx) =  3
     file N.pbe-n-kjpaw_psl.1.0.0.UPF: wavefunction(s)  2S renormalized

     Subspace diagonalization in iterative solution of the eigenvalue problem:
     one sub-group per band group will be used
     scalapack distributed-memory algorithm (size of sub-group:  4*  4 procs)

     Message from routine setup:
     using ibrav=0 with symmetry is DISCOURAGED, use correct ibrav instead

     Parallelization info
     --------------------
     sticks:   dense  smooth     PW     G-vecs:    dense   smooth      PW
     Min         498     248     74                50828    17968    2874
     Max         499     249     75                50831    17973    2876
     Sum        9967    4973   1483              1016575   359401   57505



     bravais-lattice index     =            0
     lattice parameter (alat)  =      54.8680  a.u.
     unit-cell volume          =    5722.0021 (a.u.)^3
     number of atoms/cell      =           18
     number of atomic types    =            2
     number of electrons       =        72.00
     number of Kohn-Sham states=           40
     kinetic-energy cutoff     =      60.0000  Ry
     charge density cutoff     =     480.0000  Ry
     scf convergence threshold =      1.0E-06
     mixing beta               =       0.7000
     number of iterations used =            8  plain     mixing
     Exchange-correlation= SLA  PW   PBX  PBC
                           (   1   4   3   4   0   0   0)

     celldm(1)=  54.868000  celldm(2)=   0.000000  celldm(3)=   0.000000
     celldm(4)=   0.000000  celldm(5)=   0.000000  celldm(6)=   0.000000

     crystal axes: (cart. coord. in units of alat)
               a(1) = (   1.000000   0.000000   0.000000 )  
               a(2) = (   0.000000   0.086603   0.000000 )  
               a(3) = (   0.000000   0.000000   0.400000 )  

     reciprocal axes: (cart. coord. in units 2 pi/alat)
               b(1) = (  1.000000  0.000000  0.000000 )  
               b(2) = (  0.000000 11.547005  0.000000 )  
               b(3) = (  0.000000  0.000000  2.500000 )  


     PseudoPot. # 1 for B  read from file:
     /mnt/scratch_b/users/m/marapcha/hBN.Torsion/Zig_zag/PSEUDO_DIR/B.pbe-n-kjpaw_psl.1.0.0.UPF
     MD5 check sum: 8ad70b99953bd12f00b19037396195f2
     Pseudo is Projector augmented-wave + core cor, Zval =  3.0
     Generated using &quot;atomic&quot; code by A. Dal Corso  v.6.3
     Shape of augmentation charge: PSQ
     Using radial grid of 1059 points,  4 beta functions with: 
                l(1) =   0
                l(2) =   0
                l(3) =   1
                l(4) =   1
     Q(r) pseudized with 0 coefficients 


     PseudoPot. # 2 for N  read from file:
     /mnt/scratch_b/users/m/marapcha/hBN.Torsion/Zig_zag/PSEUDO_DIR/N.pbe-n-kjpaw_psl.1.0.0.UPF
     MD5 check sum: a9d02d2210d123af897c360e4d4ce335
     Pseudo is Projector augmented-wave + core cor, Zval =  5.0
     Generated using &quot;atomic&quot; code by A. Dal Corso  v.6.3
     Shape of augmentation charge: PSQ
     Using radial grid of 1085 points,  4 beta functions with: 
                l(1) =   0
                l(2) =   0
                l(3) =   1
                l(4) =   1
     Q(r) pseudized with 0 coefficients 


     atomic species   valence    mass     pseudopotential
        B              3.00    10.81000     B ( 1.00)
        N              5.00    14.01000     N ( 1.00)

      4 Sym. Ops. (no inversion) found



   Cartesian axes

     site n.     atom                  positions (alat units)
         1           B   tau(   1) = (  -0.1500000   0.0000000   0.0000000  )
         2           N   tau(   2) = (  -0.1250000   0.0433013   0.0000000  )
         3           B   tau(   3) = (  -0.0750000   0.0433013   0.0000000  )
         4           N   tau(   4) = (  -0.0500000   0.0000000   0.0000000  )
         5           B   tau(   5) = (   0.0000000   0.0000000   0.0000000  )
         6           N   tau(   6) = (   0.0250000   0.0433013   0.0000000  )
         7           B   tau(   7) = (   0.0750000   0.0433013   0.0000000  )
         8           N   tau(   8) = (   0.1000000   0.0000000   0.0000000  )
         9           B   tau(   9) = (   0.1500000   0.0000000   0.0000000  )
        10           N   tau(  10) = (   0.1750000   0.0433013   0.0000000  )
        11           N   tau(  11) = (  -0.2000000   0.0000000   0.0000000  )
        12           B   tau(  12) = (  -0.2250000   0.0433013   0.0000000  )
        13           B   tau(  13) = (   0.2250000   0.0433013   0.0000000  )
        14           N   tau(  14) = (   0.2500000   0.0000000   0.0000000  )
        15           N   tau(  15) = (  -0.2750000   0.0433013   0.0000000  )
        16           B   tau(  16) = (  -0.3000000   0.0000000   0.0000000  )
        17           B   tau(  17) = (   0.3000000   0.0000000   0.0000000  )
        18           N   tau(  18) = (   0.3250000   0.0433013   0.0000000  )

     number of k points=    13  Gaussian smearing, width (Ry)=  0.0050
                       cart. coord. in units 2pi/alat
        k(    1) = (   0.0000000   0.0000000   0.0000000), wk =   0.0833333
        k(    2) = (   0.0000000   0.4811252   0.0000000), wk =   0.1666667
        k(    3) = (   0.0000000   0.9622504   0.0000000), wk =   0.1666667
        k(    4) = (   0.0000000   1.4433757   0.0000000), wk =   0.1666667
        k(    5) = (   0.0000000   1.9245009   0.0000000), wk =   0.1666667
        k(    6) = (   0.0000000   2.4056261   0.0000000), wk =   0.1666667
        k(    7) = (   0.0000000   2.8867513   0.0000000), wk =   0.1666667
        k(    8) = (   0.0000000   3.3678766   0.0000000), wk =   0.1666667
        k(    9) = (   0.0000000   3.8490018   0.0000000), wk =   0.1666667
        k(   10) = (   0.0000000   4.3301270   0.0000000), wk =   0.1666667
        k(   11) = (   0.0000000   4.8112522   0.0000000), wk =   0.1666667
        k(   12) = (   0.0000000   5.2923775   0.0000000), wk =   0.1666667
        k(   13) = (   0.0000000  -5.7735027   0.0000000), wk =   0.0833333

     Dense  grid:  1016575 G-vectors     FFT dimensions: ( 384,  36, 160)

     Smooth grid:   359401 G-vectors     FFT dimensions: ( 288,  24, 120)

     Estimated max dynamical RAM per process >      95.48 MB

     Estimated total dynamical RAM >       1.86 GB

     Initial potential from superposition of free atoms

     starting charge   71.99739, renormalised to   72.00000

     negative rho (up, down):  3.777E-04 0.000E+00
     Starting wfcs are   72 randomized atomic wfcs
     Checking if some PAW data can be deallocated... 

     total cpu time spent up to now is        8.1 secs

     Self-consistent Calculation

     iteration #  1     ecut=    60.00 Ry     beta= 0.70
     Davidson diagonalization with overlap
     ethr =  1.00E-02,  avg # of iterations =  2.0

     negative rho (up, down):  6.740E-04 0.000E+00

     total cpu time spent up to now is       14.9 secs

     total energy              =    -355.11967508 Ry
     estimated scf accuracy    <       6.07419936 Ry

     iteration #  2     ecut=    60.00 Ry     beta= 0.70
     Davidson diagonalization with overlap
     ethr =  8.44E-03,  avg # of iterations = 10.8

     negative rho (up, down):  1.376E-03 0.000E+00

     total cpu time spent up to now is       27.0 secs

     total energy              =    -325.12849607 Ry
     estimated scf accuracy    <     816.31406095 Ry

     iteration #  3     ecut=    60.00 Ry     beta= 0.70
     Davidson diagonalization with overlap
     ethr =  8.44E-03,  avg # of iterations = 12.3

     negative rho (up, down):  5.146E-04 0.000E+00

     total cpu time spent up to now is       42.4 secs

     total energy              =    -351.23538516 Ry
     estimated scf accuracy    <      66.10735373 Ry

     iteration #  4     ecut=    60.00 Ry     beta= 0.70
     Davidson diagonalization with overlap
     ethr =  8.44E-03,  avg # of iterations =  6.5

     negative rho (up, down):  1.969E-04 0.000E+00

     total cpu time spent up to now is       51.6 secs

     total energy              =    -355.63214482 Ry
     estimated scf accuracy    <      24.85198568 Ry

     iteration #  5     ecut=    60.00 Ry     beta= 0.70
     Davidson diagonalization with overlap
     ethr =  8.44E-03,  avg # of iterations =  5.1

     negative rho (up, down):  1.637E-04 0.000E+00

     total cpu time spent up to now is       57.7 secs

     total energy              =    -358.31696236 Ry
     estimated scf accuracy    <       3.34910444 Ry

     iteration #  6     ecut=    60.00 Ry     beta= 0.70
     Davidson diagonalization with overlap
     ethr =  4.65E-03,  avg # of iterations =  1.5

     negative rho (up, down):  1.995E-04 0.000E+00

     total cpu time spent up to now is       62.6 secs

     total energy              =    -358.24227463 Ry
     estimated scf accuracy    <       2.14672621 Ry

     iteration #  7     ecut=    60.00 Ry     beta= 0.70
     Davidson diagonalization with overlap
     ethr =  2.98E-03,  avg # of iterations =  2.1

     negative rho (up, down):  2.357E-04 0.000E+00

     total cpu time spent up to now is       67.5 secs

     total energy              =    -358.35702958 Ry
     estimated scf accuracy    <       3.01238158 Ry

     iteration #  8     ecut=    60.00 Ry     beta= 0.70
     Davidson diagonalization with overlap
     ethr =  2.98E-03,  avg # of iterations =  1.0

     negative rho (up, down):  2.772E-04 0.000E+00

     total cpu time spent up to now is       72.3 secs

     total energy              =    -358.30368067 Ry
     estimated scf accuracy    <       1.91915617 Ry

     iteration #  9     ecut=    60.00 Ry     beta= 0.70
     Davidson diagonalization with overlap
     ethr =  2.67E-03,  avg # of iterations =  1.0

     negative rho (up, down):  2.348E-04 0.000E+00

     total cpu time spent up to now is       78.7 secs

     total energy              =    -358.31460779 Ry
     estimated scf accuracy    <       0.15400748 Ry

     iteration # 10     ecut=    60.00 Ry     beta= 0.70
     Davidson diagonalization with overlap
     ethr =  2.14E-04,  avg # of iterations =  9.0

     negative rho (up, down):  4.792E-04 0.000E+00

     total cpu time spent up to now is       85.4 secs

     total energy              =    -358.29885198 Ry
     estimated scf accuracy    <       2.56339525 Ry

     iteration # 11     ecut=    60.00 Ry     beta= 0.70
     Davidson diagonalization with overlap
     ethr =  2.14E-04,  avg # of iterations =  1.7

     negative rho (up, down):  1.065E-02 0.000E+00

     total cpu time spent up to now is       90.4 secs

     total energy              =    -358.29115692 Ry
     estimated scf accuracy    <       0.43214255 Ry

     iteration # 12     ecut=    60.00 Ry     beta= 0.70
     Davidson diagonalization with overlap
     ethr =  2.14E-04,  avg # of iterations =  2.3

     negative rho (up, down):  1.231E-03 0.000E+00

     total cpu time spent up to now is       95.5 secs

     total energy              =    -358.29267725 Ry
     estimated scf accuracy    <       0.12488742 Ry

     iteration # 13     ecut=    60.00 Ry     beta= 0.70
     Davidson diagonalization with overlap
     ethr =  1.73E-04,  avg # of iterations =  7.8

     negative rho (up, down):  3.288E-03 0.000E+00

     total cpu time spent up to now is      101.7 secs

     total energy              =    -358.29461027 Ry
     estimated scf accuracy    <       0.12553536 Ry

     iteration # 14     ecut=    60.00 Ry     beta= 0.70
     Davidson diagonalization with overlap
     ethr =  1.73E-04,  avg # of iterations =  3.5

     negative rho (up, down):  1.274E-03 0.000E+00

     total cpu time spent up to now is      107.1 secs

     total energy              =    -358.29513093 Ry
     estimated scf accuracy    <       0.04581938 Ry

     iteration # 15     ecut=    60.00 Ry     beta= 0.70
     Davidson diagonalization with overlap
     ethr =  6.36E-05,  avg # of iterations =  1.4

     negative rho (up, down):  1.201E-03 0.000E+00

     total cpu time spent up to now is      111.9 secs

     total energy              =    -358.29498348 Ry
     estimated scf accuracy    <       0.03938839 Ry

     iteration # 16     ecut=    60.00 Ry     beta= 0.70
     Davidson diagonalization with overlap
     ethr =  5.47E-05,  avg # of iterations =  2.1

     negative rho (up, down):  9.533E-04 0.000E+00

     total cpu time spent up to now is      117.0 secs

     total energy              =    -358.29533892 Ry
     estimated scf accuracy    <       0.00154314 Ry

     iteration # 17     ecut=    60.00 Ry     beta= 0.70
     Davidson diagonalization with overlap
     ethr =  2.14E-06,  avg # of iterations =  8.1

     negative rho (up, down):  8.585E-04 0.000E+00

     total cpu time spent up to now is      123.5 secs

     total energy              =    -358.29536172 Ry
     estimated scf accuracy    <       0.00016342 Ry

     iteration # 18     ecut=    60.00 Ry     beta= 0.70
     Davidson diagonalization with overlap
     ethr =  2.27E-07,  avg # of iterations =  3.1

     negative rho (up, down):  8.664E-04 0.000E+00

     total cpu time spent up to now is      129.7 secs

     total energy              =    -358.29539807 Ry
     estimated scf accuracy    <       0.00007154 Ry

     iteration # 19     ecut=    60.00 Ry     beta= 0.70
     Davidson diagonalization with overlap
     ethr =  9.94E-08,  avg # of iterations =  1.2

     negative rho (up, down):  9.065E-04 0.000E+00

     total cpu time spent up to now is      135.0 secs

     total energy              =    -358.29539899 Ry
     estimated scf accuracy    <       0.00003352 Ry

     iteration # 20     ecut=    60.00 Ry     beta= 0.70
     Davidson diagonalization with overlap
     ethr =  4.66E-08,  avg # of iterations =  1.8

     negative rho (up, down):  9.016E-04 0.000E+00

     total cpu time spent up to now is      140.0 secs

     total energy              =    -358.29540036 Ry
     estimated scf accuracy    <       0.00000215 Ry

     iteration # 21     ecut=    60.00 Ry     beta= 0.70
     Davidson diagonalization with overlap
     ethr =  2.99E-09,  avg # of iterations =  2.5

     negative rho (up, down):  9.050E-04 0.000E+00

     total cpu time spent up to now is      145.6 secs

     End of self-consistent calculation

          k = 0.0000 0.0000 0.0000 ( 44871 PWs)   bands (ev):

   -22.5901 -21.9653 -21.5140 -21.1155 -20.6844 -20.1915 -19.6448 -19.0038
   -17.5038 -13.5089 -12.5249 -11.5764 -10.4748 -10.0507  -9.4017  -9.2815
    -9.1356  -8.9047  -8.5007  -8.4149  -8.0803  -8.0491  -7.8408  -7.6577
    -7.2499  -7.1812  -6.9628  -6.8021  -6.4692  -6.3172  -5.9613  -5.7587
    -5.7126  -4.8826  -4.7410  -3.4102  -3.1854  -0.0991   0.1169   0.6872

          k = 0.0000 0.4811 0.0000 ( 44797 PWs)   bands (ev):

   -22.5657 -21.9412 -21.4902 -21.0923 -20.6621 -20.1705 -19.6252 -18.9854
   -17.4870 -13.4897 -12.5092 -11.5667 -10.4751 -10.0177  -9.3689  -9.3085
    -9.2222  -8.8723  -8.5987  -8.3830  -8.1734  -8.0868  -7.8099  -7.7514
    -7.3419  -7.1514  -7.0503  -6.8443  -6.4407  -6.4309  -5.9889  -5.8604
    -5.6851  -4.9918  -4.7128  -3.4025  -3.1729  -0.0957   0.1596   0.7300

          k = 0.0000 0.9623 0.0000 ( 44807 PWs)   bands (ev):

   -22.4930 -21.8694 -21.4193 -21.0230 -20.5959 -20.1083 -19.5672 -18.9313
   -17.4375 -13.4325 -12.4634 -11.5407 -10.4828  -9.9191  -9.5330  -9.3345
    -9.2709  -8.8674  -8.7752  -8.4483  -8.2878  -8.2178  -7.9984  -7.7176
    -7.5890  -7.3113  -7.0627  -6.9691  -6.7170  -6.3560  -6.1704  -6.0632
    -5.6036  -5.2911  -4.6289  -3.3793  -3.1525  -0.0892   0.2860   0.8569

          k = 0.0000 1.4434 0.0000 ( 44773 PWs)   bands (ev):

   -22.3727 -21.7508 -21.3025 -20.9091 -20.4873 -20.0068 -19.4732 -18.8441
   -17.3577 -13.3386 -12.3917 -11.5088 -10.5282  -9.9286  -9.7557  -9.5155
    -9.2218  -9.1088  -8.8459  -8.6147  -8.5310  -8.3153  -8.1306  -7.9306
    -7.6764  -7.5656  -7.2548  -7.0440  -6.9172  -6.5520  -6.2615  -6.2177
    -5.7145  -5.4710  -4.4920  -3.3403  -3.1514  -0.0901   0.4929   0.9796

          k = 0.0000 1.9245 0.0000 ( 44810 PWs)   bands (ev):

   -22.2065 -21.5873 -21.1416 -20.7527 -20.3393 -19.8697 -19.3474 -18.7290
   -17.2522 -13.2113 -12.3049 -11.4999 -10.7086 -10.3346  -9.9035  -9.5781
    -9.5294  -9.2921  -8.9564  -8.8844  -8.7153  -8.3928  -8.3210  -8.0888
    -7.9138  -7.6315  -7.4276  -7.3569  -6.9025  -6.7188  -6.5855  -6.1621
    -6.0307  -5.2933  -4.3068  -3.2850  -3.1822  -0.1150   0.7771   0.9469

          k = 0.0000 2.4056 0.0000 ( 44860 PWs)   bands (ev):

   -21.9969 -21.3817 -20.9401 -20.5576 -20.1563 -19.7027 -19.1968 -18.5938
   -17.1279 -13.0583 -12.2323 -11.5919 -11.0800 -10.6792 -10.3668  -9.9769
    -9.7814  -9.3327  -9.2428  -9.2241  -8.7110  -8.6007  -8.5208  -8.1128
    -8.0733  -7.7712  -7.6413  -7.1973  -7.0964  -7.0615  -6.5371  -6.4739
    -5.8033  -5.0801  -4.0811  -3.2430  -3.2139  -0.1836   0.8629   1.1368

          k = 0.0000 2.8868 0.0000 ( 44860 PWs)   bands (ev):

   -21.7476 -21.1386 -20.7031 -20.3297 -19.9456 -19.5146 -19.0315 -18.4501
   -16.9945 -12.9057 -12.2614 -11.8630 -11.4479 -11.0413 -10.8280 -10.3749
   -10.2604  -9.7940  -9.6074  -9.1827  -8.8998  -8.8697  -8.5083  -8.2621
    -8.0077  -7.7797  -7.6684  -7.4198  -7.3189  -6.8665  -6.7920  -6.1929
    -5.5488  -4.8476  -3.8269  -3.3249  -3.1290  -0.3114   0.7148   1.4141

          k = 0.0000 3.3679 0.0000 ( 44902 PWs)   bands (ev):

   -21.4642 -20.8646 -20.4384 -20.0781 -19.7179 -19.3178 -18.8652 -18.3139
   -16.8646 -12.8720 -12.4873 -12.1158 -11.8358 -11.4247 -11.1686 -10.8695
   -10.6058 -10.1920 -10.0271  -9.4958  -9.3121  -8.6926  -8.5063  -8.3721
    -8.1014  -7.8754  -7.6865  -7.4010  -7.1785  -6.9560  -6.4559  -5.8925
    -5.2888  -4.6212  -3.5619  -3.4167  -3.0348  -0.4987   0.5103   1.1364

          k = 0.0000 3.8490 0.0000 ( 44966 PWs)   bands (ev):

   -21.1547 -20.5704 -20.1592 -19.8173 -19.4886 -19.1286 -18.7153 -18.2050
   -16.7523 -13.1397 -12.7800 -12.2829 -12.1422 -11.8186 -11.5571 -11.1175
   -10.9951 -10.6051 -10.2299  -9.9522  -9.3933  -8.9505  -8.7817  -8.3475
    -8.0712  -7.9357  -7.4657  -7.4510  -6.9891  -6.5675  -6.1082  -5.5995
    -5.0556  -4.4379  -3.5077  -3.3093  -2.9383  -0.7228   0.2835   0.8339

          k = 0.0000 4.3301 0.0000 ( 44964 PWs)   bands (ev):

   -20.8318 -20.2739 -19.8879 -19.5710 -19.2776 -18.9638 -18.5987 -18.1434
   -16.6692 -13.4768 -13.1113 -12.6488 -12.3791 -12.0097 -11.8155 -11.5422
   -11.2165 -10.7536 -10.6223  -9.9786  -9.5619  -9.3152  -8.9593  -8.5413
    -8.1582  -7.7105  -7.6082  -7.0065  -6.5652  -6.1789  -5.7819  -5.3535
    -4.8893  -4.3410  -3.5884  -3.0938  -2.8481  -0.9434   0.0858   0.5664

          k = 0.0000 4.8113 0.0000 ( 45016 PWs)   bands (ev):

   -20.5157 -20.0091 -19.6643 -19.3719 -19.1030 -18.8325 -18.5244 -18.1405
   -16.6192 -13.7407 -13.3847 -12.9384 -12.6637 -12.3432 -12.0308 -11.5755
   -11.4704 -11.0792 -10.5266 -10.0078  -9.8678  -9.4556  -9.0804  -8.7021
    -8.3341  -7.8964  -7.1408  -6.5749  -6.1728  -5.8396  -5.5252  -5.1919
    -4.8151  -4.3569  -3.6513  -2.9341  -2.7742  -1.1214  -0.0419   0.3697

          k = 0.0000 5.2924 0.0000 ( 45038 PWs)   bands (ev):

   -20.2453 -19.8438 -19.5276 -19.2421 -18.9826 -18.7370 -18.4849 -18.1843
   -16.5963 -13.9020 -13.5573 -13.1153 -12.8526 -12.5336 -12.2682 -11.8680
   -11.3480 -11.1688 -10.4345 -10.2388  -9.9397  -9.4992  -9.1786  -8.8064
    -8.4473  -8.0118  -6.7176  -6.2386  -5.9098  -5.6261  -5.3630  -5.1009
    -4.8120  -4.4617  -3.6912  -2.8379  -2.7255  -1.2340  -0.0965   0.2548

          k = 0.0000-5.7735 0.0000 ( 45084 PWs)   bands (ev):

   -20.1172 -19.8145 -19.4767 -19.1965 -18.9398 -18.6974 -18.4684 -18.2179
   -16.5903 -13.9558 -13.6157 -13.1746 -12.9146 -12.6104 -12.3157 -12.0079
   -11.3976 -11.0403 -10.4812 -10.3271  -9.9113  -9.5372  -9.2057  -8.8456
    -8.4857  -8.0508  -6.4950  -6.1496  -5.8287  -5.5553  -5.3008  -5.0578
    -4.8201  -4.5389  -3.7049  -2.8060  -2.7084  -1.2722  -0.1083   0.2182

     the Fermi energy is    -3.1632 ev

!    total energy              =    -358.29540048 Ry

     total all-electron energy =     -1434.138710 Ry
     estimated scf accuracy    <       0.00000016 Ry
     smearing contrib. (-TS)   =      -0.00149067 Ry
     internal energy E=F+TS    =    -358.29390981 Ry

     The total energy is F=E-TS. E is the sum of the following terms:
     one-electron contribution =   -1521.38239057 Ry
     hartree contribution      =     776.05797813 Ry
     xc contribution           =     -78.72637545 Ry
     ewald contribution        =     584.40351695 Ry
     one-center paw contrib.   =    -118.64663887 Ry

     convergence has been achieved in  21 iterations

     Writing output data file /mnt/scratch_b/users/m/marapcha/hBN.Torsion/Zig_zag/TMP_DIR/BN_zig.save/

     init_run     :      7.29s CPU      7.73s WALL (       1 calls)
     electrons    :    132.86s CPU    137.80s WALL (       1 calls)

     Called by init_run:
     wfcinit      :      3.13s CPU      3.48s WALL (       1 calls)
     potinit      :      1.37s CPU      1.40s WALL (       1 calls)
     hinit0       :      2.35s CPU      2.35s WALL (       1 calls)

     Called by electrons:
     c_bands      :    107.55s CPU    110.45s WALL (      21 calls)
     sum_band     :     18.47s CPU     19.09s WALL (      21 calls)
     v_of_rho     :      3.15s CPU      3.23s WALL (      22 calls)
     newd         :      1.98s CPU      2.37s WALL (      22 calls)
     PAW_pot      :      1.12s CPU      1.13s WALL (      22 calls)
     mix_rho      :      0.53s CPU      0.54s WALL (      21 calls)

     Called by c_bands:
     init_us_2    :      1.25s CPU      1.28s WALL (     559 calls)
     cegterg      :    104.96s CPU    106.20s WALL (     273 calls)

     Called by *egterg:
     cdiaghg      :      5.13s CPU      5.44s WALL (    1399 calls)
     h_psi        :     84.02s CPU     85.10s WALL (    1412 calls)
     s_psi        :      4.41s CPU      4.44s WALL (    1412 calls)
     g_psi        :      0.33s CPU      0.33s WALL (    1126 calls)

     Called by h_psi:
     h_psi:calbec :      4.69s CPU      4.73s WALL (    1412 calls)
     vloc_psi     :     74.35s CPU     75.37s WALL (    1412 calls)
     add_vuspsi   :      4.59s CPU      4.61s WALL (    1412 calls)

     General routines
     calbec       :      5.97s CPU      6.02s WALL (    1685 calls)
     fft          :      2.10s CPU      2.13s WALL (     284 calls)
     ffts         :      0.08s CPU      0.08s WALL (      43 calls)
     fftw         :     83.11s CPU     84.23s WALL (   70820 calls)
     interpolate  :      0.21s CPU      0.21s WALL (      22 calls)

     Parallel routines
     fft_scatt_xy :      5.20s CPU      5.29s WALL (   71147 calls)
     fft_scatt_yz :     13.05s CPU     13.23s WALL (   71147 calls)

     PWSCF        :   2m20.66s CPU   2m30.40s WALL


   This run was terminated on:  21:33: 8  27Mar2023            

=------------------------------------------------------------------------------=
   JOB DONE.
=------------------------------------------------------------------------------=
