

4 atoms
0 bonds
0 angles
0 dihedrals

2 atom types
0 bond types
0 angle types
0 dihedral types

0.000000000000000 2.514591000000000 xlo xhi
0.000000000000000 4.355400000000000 ylo yhi
0.000000000000000 200.000000000000000 zlo zhi

Masses

1	10.811	#	B
2	14.0067	#	N

Atoms

1 1 1 0 1.2572954994959027 0.0 0.0
2 1 2 0 0.0 0.7259 0.0
3 1 1 0 0.0 2.1777 0.0
4 1 2 0 1.2572954994959027 2.9036 0.0

